% Model:              vacuumTaperCoilV2field.mph
% Version:            COMSOL 6.2.0.415
% Date:               Nov 28 2025, 16:23
% Dimension:          1
% Nodes:              933
% Expressions:        1
% Description:        Line graph
% y-coordinate (m)        Magnetic flux density, z-component
-0.25                     -0.2594331180075244
-0.24404086408056064      -0.2614811105928837
-0.24341205590035583      -0.2616972148247855
-0.24327455946284754      -0.2617444686025708
-0.24112098614713953      -0.2624845930505145
-0.2409891267341977       -0.2625299095366065
-0.2393533247381207       -0.26207879244788745
-0.23634757058963263      -0.26203843798030707
-0.23077951779608963      -0.2638407806608594
-0.22941325307181035      -0.264283031716446
-0.22716497104550878      -0.2647903815056908
-0.22526564090376375      -0.2653338082813358
-0.22092058702211867      -0.2670812076669731
-0.21981096477788747      -0.2675274514376314
-0.21939079505214876      -0.26769642617088485
-0.21840949960708927      -0.2680910622570052
-0.21446138328802997      -0.2696788299161161
-0.21439204151573216      -0.26970671628383747
-0.2116166190587887       -0.2708228753990679
-0.2087080528656761       -0.2724468002516818
-0.20846908663753091      -0.27303608284949266
-0.2077099822141809       -0.27346253842594637
-0.2030769910923936       -0.2760937117921177
-0.20150665343882884      -0.2769864154690851
-0.2000051592139306       -0.277839983115806
-0.19982447824581193      -0.2779426964171338
-0.1944874065495473       -0.2809767085715667
-0.19442934274459028      -0.28100971661417845
-0.1944062035626132       -0.2810228707487597
-0.1908279920710757       -0.28305700815112855
-0.1885978753929494       -0.2843247822213175
-0.1873520320503517       -0.28503301775928475
-0.18616080634179666      -0.2857102043297718
-0.18616080634179666      -0.2848365465005282
-0.17923174168407652      -0.28859926429967464
-0.17845011574148384      -0.2890237137732712
-0.1776588918314212       -0.28879496327127224
-0.17718095153447933      -0.28799621738077824
-0.1765602096255563       -0.2878139537620372
-0.17380258049428418      -0.28778020310926966
-0.17380258049428415      -0.2870042525683941
-0.17245904798220354      -0.2871628902972827
-0.171951587199453        -0.2869297273183741
-0.17039238264843587      -0.28621331968610164
-0.16899040159178813      -0.28556915152444773
-0.16884765255587506      -0.2855035626324966
-0.1669761447304308       -0.2846436610313011
-0.1667591025532721       -0.28454393667368394
-0.16569403497479246      -0.2840545701299403
-0.16523625712954654      -0.28384423496768685
-0.16371529167712717      -0.28502338458944193
-0.16371529167712717      -0.2831453970520188
-0.1628363597607882       -0.284898418942082
-0.16222432943827236      -0.2848114010923086
-0.1617631307688978       -0.2847458283338131
-0.16163672305102317      -0.28472785581284427
-0.1614627585593554       -0.28066306274510344
-0.15883791502320438      -0.2742743565636261
-0.15759723110343093      -0.2731642222700237
-0.15621258564953416      -0.26862943412382145
-0.15567484030034284      -0.26439008690630406
-0.15558275256170997      -0.26422851340556797
-0.15558275256170997      -0.2826692246063756
-0.1554822116838049       -0.28217060747287204
-0.15387279157932135      -0.2741889341891045
-0.1504258409733483       -0.25709430893525254
-0.15005315805245276      -0.2552460448898763
-0.14612965286265778      -0.235788019937409
-0.14612965286265775      -0.23496877101493668
-0.14509757927857808      -0.2314720436605884
-0.14480171006647083      -0.23046962098138826
-0.14367512688738263      -0.22665268943695274
-0.14316912000331714      -0.2249383076910312
-0.14110341382998437      -0.21793957097910172
-0.13975002969585515      -0.21335422416301475
-0.13919206070187382      -0.21146379166457124
-0.1369689541241124       -0.20393177291902034
-0.1365344718375396       -0.2024597208096833
-0.13469834932523944      -0.18709781930881975
-0.13225072674654276      -0.16644415573825114
-0.13060932865571503      -0.15185612538213697
-0.13000765163149855      -0.14485196270257827
-0.1285661551016099       -0.12807140471051165
-0.12781772585888015      -0.11935888959154664
-0.12753738056843508      -0.11609537122256307
-0.12711505406827261      -0.11117904004824311
-0.12694541848261964      -0.10920430079390102
-0.12603311624916408      -0.09858412917546447
-0.12211848579065876      -0.053013652893039644
-0.12206979815236346      -0.05244687682319081
-0.12197938139000253      -0.051394329215344564
-0.12143487185996091      -0.046889054653706866
-0.11896163501244468      -0.020864598129172282
-0.11780595469187724      -0.007847335478495709
-0.11554904408094484      0.023956126191027542
-0.11523350905486222      0.03457693630025484
-0.11118108530586536      0.09536510327207252
-0.11076456401451501      0.09979694591321217
-0.10778263057219421      0.1477324466803625
-0.1075582897583009       0.15201519847660533
-0.10630519453418504      0.1759372647685545
-0.10564377286489263      0.18856405698293588
-0.10438907176590016      0.213742764545368
-0.10208171932802315      0.25868537407507103
-0.10187869664633194      0.2625319760510494
-0.10066652024686698      0.28549867166641074
-0.10037861198928778      0.29095357189371235
-0.09735734410540138      0.34819651103385557
-0.09652713202957071      0.36392625799990574
-0.09583536424309727      0.3770329479135691
-0.09573585163257216      0.3789183796352469
-0.09506659735407588      0.3915985137397308
-0.0910156315828436       0.46835078994079954
-0.0909725447311183       0.4790984562989348
-0.09078973181069333      0.49796314935828745
-0.09045614359167109      0.49867970082979096
-0.08942737737314888      0.5222855679601515
-0.08904077953337777      0.5253683854580065
-0.08768596100586562      0.5424396496544747
-0.08494505996041829      0.6167308375137686
-0.08400837879368842      0.6421192610168469
-0.08345757156880305      0.6570487029557279
-0.08305846808152739      0.6678662668359581
-0.07975326140747446      0.7637995643957473
-0.07925836752964814      0.7837061260867925
-0.0792364610484012       0.7843063491232855
-0.07920318823451147      0.7852180021249892
-0.07781655467100086      0.8232108408018668
-0.07407865240657438      0.9256268802368046
-0.07392653783517399      0.9297947184629233
-0.07355139976569655      0.9400732524103703
-0.07206156551861395      0.9808937212741076
-0.06877400861350494      1.0709705969705263
-0.06861661462194676      1.0900698757803486
-0.06782321092260471      1.1268516234526242
-0.06650474049487493      1.173304365491635
-0.06602254202687716      1.1671933651411166
-0.06524051015801038      1.1771230150600185
-0.061923821434912804     1.3285955245389336
-0.060681821373015594     1.3853174185286856
-0.06001951481645687      1.415564826272334
-0.0584384354693299       1.487772403283353
-0.05561237030267728      1.6168382332368054
-0.05415984848859553      1.6831746134703924
-0.0540164876060366       1.6897218762542314
-0.05163636078064941      1.798421791506688
-0.05059779866141337      1.8458527154142912
-0.04930091917044177      1.9050809419346773
-0.04801346039561631      1.963878926236117
-0.04509715858421316      2.097065845676261
-0.04483428609196893      2.1266249674679187
-0.04368988970879426      2.2143896912665646
-0.04317094268052739      2.245056728959371
-0.03957113036689148      2.500829399747669
-0.0391894291025318       2.5281073044021127
-0.03861401491830706      2.5697835841665624
-0.038475478906049985     2.5798175140948896
-0.03835039811873337      2.5888769047534415
-0.0375841518516636       2.644374830717647
-0.037218682174795216     2.6708451835802705
-0.03705889157866809      2.6824185472033677
-0.03333455441658861      2.952166012176056
-0.03247262651640552      3.01459399759879
-0.03161682413154443      3.0765783222685132
-0.030596128083337004     3.1505056171211168
-0.02805509391487016      3.3345484401855527
-0.027361101181147436     3.384813164479915
-0.02488325014435548      3.5642797397835713
-0.02413336458800592      3.6185926870388534
-0.022775633413151704     3.7493119750238844
-0.02225523225353916      3.8172730284396867
-0.02148407497913316      3.8810147400278954
-0.019553642414275173     4.062000330719524
-0.019018776162750738     4.11293512088916
-0.016061398013871315     4.394563350443977
-0.016061398013871315     4.3692487940776585
-0.015309494828580258     4.440958776960383
-0.014783492390071429     4.491124312363906
-0.013719222776826485     4.592625086986715
-0.013501143522830106     4.613423588545269
-0.012500563066743643     4.708850245570228
-0.01156128795875213      4.79843013196234
-0.010559440837470475     4.893977592491322
-0.00903593665466741      5.039276164179469
-0.008016752368479893     5.136477092632183
-0.007800036581546284     5.157145558566941
-0.007627930933106156     5.173559497681835
-0.0074853706722007324    5.187155654832478
-0.006335389284869524     5.2968308726187345
-0.005722920097157932     5.355242854142659
-0.005038353504128622     5.420530858806746
-0.003099510096348922     5.618232514706422
-0.0013812551481490552    5.774064355822106
-9.932985812513583E-4     5.806360718007534
4.731659577972081E-5      5.892989190163055
2.787152361247202E-4      5.912252517389496
0.0010571880744110799     5.977058330416105
0.002647663676368636      6.109461234428433
0.002961779871607836      6.135610580193802
0.004688582579532899      6.279362356646215
0.005213886245171082      6.32309250298308
0.006118695991206968      6.398415530765682
0.006450208588698814      6.426013081190577
0.006843307643942625      6.458737541983764
0.009098449922941078      6.646472195902923
0.009370584415931086      6.669126675550054
0.009741677291413583      6.700019179849843
0.01335086520442238       7.005028788405596
0.013399844903636719      6.988073770372974
0.013574804552698973      6.965715944772421
0.013623345501611744      7.013456435954391
0.013765327783755521      7.077424750193297
0.014136257987035697      7.079637792790301
0.017553997922018075      7.244082284507732
0.018172641971974587      7.277039715370253
0.018738983139423113      7.307210780415007
0.019688257946579454      7.357782120798209
0.021351937627606427      7.446412421321899
0.021523627316958834      7.455558958926258
0.0228608127575508        7.526795717304173
0.025162825721362837      7.6494323661247785
0.025493256711899594      7.667035633344784
0.02565990410279792       7.675913549271298
0.02574937332732541       7.6806799020421614
0.02754898354312702       7.776551719238087
0.029113012178057066      7.8598732441219665
0.029462886106840357      7.890797319635449
0.029462886106840357      7.878512307763307
0.029804954125763197      7.896880291619065
0.03132781716273911       7.9239612599539075
0.032463193623512146      7.944151581234127
0.033344757574271626      7.959828372157531
0.033631604937200174      7.9649293590248895
0.03589603053950319       8.005197483303709
0.03705249689089112       8.02576284465389
0.037226629041702895      8.028859424679613
0.03739287416718322       8.031815750277937
0.03750757687663949       8.033855500647658
0.040464243916267274      8.086433706653505
0.04110850050913417       8.097890477201684
0.04475234223225675       8.170989717630736
0.0449516821514532        8.13957209483556
0.044970500437398336      8.098188880623255
0.04502294298557543       8.123182992250637
0.045315011675063355      8.151397760516584
0.04926364229419429       8.121938542529849
0.049500473794055325      8.11973323284537
0.049719709378403         8.117691771478837
0.05281645703251788       8.08885571041429
0.053264397945030496      8.084684608035523
0.053557900536727494      8.081951592755598
0.05388036378429964       8.078948903826229
0.054473528855142596      8.07342551409137
0.05450995471732923       8.073086326497268
0.05454625281245307       8.072748328634857
0.055352989855230114      8.065236215532058
0.0578521587792607        8.041964642981368
0.05842286688463282       8.036650366322547
0.05930020005625547       8.028480881515733
0.06058805407649404       8.016488739656682
0.06113100861439344       8.011432896572618
0.06214641702179391       7.998345376105908
0.06214641702179391       8.001977693207124
0.06325611420305632       7.9667836550416755
0.06381934620027642       7.950764355821245
0.06507878580681717       7.914943699312358
0.06662252712376698       7.871037006870857
0.06937793251312722       7.792668477341969
0.0698673919681702        7.778747397741904
0.07001402654023511       7.774576855056898
0.07016727457837343       7.770218213875291
0.0707605080032044        7.753345621787423
0.07109863722574007       7.743728637635766
0.07145597956383705       7.733565199005934
0.07216228806596263       7.7134765547291
0.07494926727365306       7.634210010801429
0.07557474732771316       7.616420268400686
0.07755282236414955       7.560160368314139
0.0795248916079561        7.502781177402597
0.07996796272633994       7.4844456201493
0.07996859971592668       7.486113042188578
0.08028092024648575       7.4788174799181855
0.0816466326395659        7.429613215162265
0.08382822315622271       7.354429024298783
0.08509984497384329       7.310605100096616
0.08679711641113447       7.252112005854562
0.08768928505696733       7.221365182727798
0.0887552689646417        7.184628161293174
0.08894973582786156       7.177926246497841
0.0901784470582763        7.135581150588108
0.09155034695771191       7.088301341156788
0.0923069201195682        7.062227547487056
0.09388967021589785       7.007681204154977
0.09525704914270929       6.960557201079658
0.09541140885845649       6.950476635745054
0.0954114088584565        6.955237499585836
0.0955543615424082        6.945230735786296
0.0974115293358515        6.877078699869866
0.0982444689524167        6.84651251685464
0.09922540183403197       6.810515460899081
0.09970802524269375       6.792804746769027
0.10025765990738758       6.772634936835128
0.10029420726385609       6.77129376736219
0.101637396481709         6.722003078529002
0.10303939480960744       6.670554286053163
0.1049609582723669        6.600039137884001
0.10524623176860821       6.589570525607565
0.10539851999018773       6.583982041689538
0.10685338778518293       6.530593111207201
0.10914682440197346       6.446431424131062
0.1095640913943855        6.430270201712199
0.10976645132479268       6.423293183863709
0.11064866243282873       6.392172673065768
0.11190244736296509       6.346637783588777
0.11248304488453667       6.325317207904821
0.11329817336385303       6.295539464105606
0.11471507873480594       6.244908581926133
0.11521967050183131       6.227285892328895
0.11589645094013878       6.203649574082792
0.1183026914048537        6.119612474040584
0.11930903314366562       6.084466343543104
0.1193652075825441        6.082504471066487
0.12010933811073406       6.056515974671813
0.12128073158017041       6.015605470662203
0.1227905810778239        5.962874509171208
0.1239029875525253        5.924024105160094
0.12449644302807861       5.903297881866537
0.12556679281325944       5.865916292912141
0.12666501222020202       5.8275613672416195
0.1283566881704955        5.768480180985094
0.12849694196138495       5.769601977625257
0.12849694196138495       5.763581866777055
0.13004554703174637       5.716949305293986
0.1312167954943491        5.677126781979171
0.131669351622065         5.657861522092458
0.13301707856516756       5.612355677059961
0.13480630478036987       5.5570914744269295
0.1372263083500761        5.482344320314944
0.13815832520749158       5.453556921590299
0.1390418152218657        5.426268381570162
0.14205135270457553       5.33331217074393
0.1436160553036876        5.2849828757878
0.14464729879291816       5.253130643426902
0.14561874242112555       5.223125461824002
0.14929640062878125       5.1095328670609526
0.15092480512310466       5.059235998404439
0.15113627237834473       5.052704365263509
0.15427058774669128       4.960407265677809
0.15646602372228802       4.902541592019906
0.1569883500431601        4.894995714595769
0.1574333630839666        4.882625474422813
0.15794645356370826       4.866944917414621
0.15833571441548963       4.850311508791464
0.15917849859907768       4.825445776744132
0.15981528206992168       4.813301919187543
0.1619086910343875        4.759730511610749
0.16243077915108797       4.746370009307805
0.16333177846260766       4.723312975463429
0.16600185530496006       4.654984341540981
0.1664062592442085        4.64463543761305
0.1665876888514137        4.639992561042316
0.16681424932776365       4.6341947624156
0.17008057423436873       4.550607835150016
0.17017366229435388       4.548225664018315
0.17090382745402954       4.529540363615327
0.1723046489045897        4.4936926252402305
0.1749574590759427        4.425805854272071
0.17540139566385052       4.416838808007313
0.17540766924535758       4.419089368057735
0.1755862687928761        4.415019556470615
0.17674158857124095       4.388692872634399
0.17713771154705835       4.379666277106568
0.17897607191762896       4.337774903688269
0.17919302956343414       4.33283101243502
0.17931574398494632       4.33003467514573
0.18233308202699916       4.26127751704312
0.18242225118537977       4.259573669274777
0.1825507481714074        4.256928663158804
0.18276885743046092       4.251882179276883
0.18284078744879365       4.25021790477649
0.18304521917701655       4.242976948480871
0.18326441185814366       4.236055949842149
0.18333860691665496       4.234563176809391
0.1875261041014904        4.150312513790931
0.18848019391224768       4.131116632435697
0.1915762187466415        4.068825929061859
0.19255891002762687       4.049054598285727
0.193202445083697         4.036106946560523
0.193574934840064         4.028612611028753
0.19391516864747882       4.021767251476082
0.19430030218689937       4.014018528404858
0.19482550772041635       4.003451616364892
0.19759171595376335       3.9477966827805586
0.19935014338270995       3.9124178705164834
0.20147671534525535       3.8734031223103624
0.20422708577631465       3.82629024968442
0.20432464226439587       3.8215678512018174
0.2043749179305622        3.8163349976160044
0.2082458602045264        3.750754790821265
0.20880265677958576       3.7415253387262766
0.21178829019683204       3.690064010253309
0.2130181414458837        3.6688659024297787
0.21327688647456278       3.664406090707857
0.2134812944812306        3.6608828492030985
0.21492574363560052       3.635985863536289
0.21720729255860372       3.596660359649712
0.2177511161695398        3.587286842689433
0.2203265418083178        3.542895986133085
0.2214901558481407        3.5228395639436876
0.22222534586451675       3.510277988433112
0.22398784692562565       3.4846639089895537
0.2241827572688174        3.481819107354211
0.22429769842103622       3.4801414910079163
0.2248757988374022        3.4717038627992753
0.22762801816066253       3.4315340190474135
0.22811682982545511       3.4243995991874585
0.23016309995414097       3.392762337224792
0.23016309995414097       3.3945333924325207
0.23202874056726847       3.3639124061764534
0.23366190462392994       3.338657450804142
0.23478767201916645       3.321248786187548
0.23711314333072364       3.2852881158841547
0.23863770320866998       3.261712596007338
0.23881955556891377       3.2628687853298266
0.2400483768915107        3.2577586180484492
0.2400483768915107        3.2491034099428897
0.24089867104231413       3.241878395570565
0.24187153986207746       3.2252090630826276
0.24577615241329082       3.182841961800115
0.24645934494106797       3.1754289632912616
0.24656549491844948       3.174277180167105
0.24691243214583186       3.1705127286476764
0.24879229855465923       3.1501151886880034
0.2511182175750435        3.1236855726260564
0.25199745205725566       3.112594983263721
0.25211850976461325       3.111232115998523
0.2524555108956903        3.1074381583901642
0.2528110315296619        3.103435708280059
0.25284400148872394       3.1030645325910307
0.2554087671193694        3.0743714923665753
0.25730559599830494       3.057892671303356
0.2583458282193032        3.044842935397002
0.26092494027976704       3.0199609191909906
0.26117110520280434       3.017959551656408
0.26118033920282174       3.0178844774840963
0.2643614018260577        2.9920218347441523
0.2652762864526243        2.984583649128969
0.2664581526504374        2.974974852679262
0.26887786375858624       2.955302142224966
0.26910558683218516       2.953450710425696
0.2703769754328123        2.9431140798540554
0.2743626441671551        2.910709836755182
0.2743626441671551        2.911364521998923
0.27553558266400524       2.9017043914004894
0.2758852294443753        2.898824757412205
0.2763024309010995        2.895388754102029
0.2767310745902282        2.891004133275083
0.27729145897560886       2.8856231403523838
0.27759775168145645       2.885287955637917
0.28074900306750256       2.8628582391721125
0.28174008109213655       2.8572211574036572
0.28217165711345743       2.850351611713106
0.28262771691213084       2.843512541037297
0.28350705542592614       2.8393116964392484
0.28650259135767064       2.8194724904594586
0.28805197438508034       2.8082763114579157
0.28884339291979055       2.8025573488624804
0.2893434677479546        2.7989436993056946
0.292527554693946         2.775934793971676
0.29394892965926955       2.765663629089559
0.29474205348424526       2.7599323436954872
0.2951798800699831        2.7567685134876982
0.29855251803022126       2.7323970974838976
0.2998458849334589        2.7230509467212114
0.3006365424437981        2.7173374834535293
0.30101629239201155       2.714593327669705
0.3045774813664966        2.6911854315603767
0.30499712292539277       2.6900319196345386
0.3059557937093016        2.6793410074164994
0.30960612203956195       2.646324668977963
0.3106122626854004        2.6379801202354742
0.3108389237875526        2.636100279059428
0.3118293572486033        2.6278859997475466
0.31529641120441126       2.599131569790994
0.3165656899679193        2.5886046533467053
0.31683470583821316       2.5863735377949553
0.317702920787905         2.5791728924411954
0.32095363117253717       2.5522127339737506
0.322519117250438         2.5392291864580088
0.3228304878888736        2.536646796530559
0.3235764843272067        2.5304597851349393
0.3265721051465293        2.5056152427299305
0.32847254453295693       2.487452978911131
0.32886702004475366       2.4887364401746597
0.329288314991796         2.490571313207525
0.3298490798796574        2.480313987460895
0.3339921762487331        2.441653749584427
0.33481570004501604       2.434557022578384
0.33507705907999286       2.43230475770133
0.33548230215652264       2.4288125702281844
0.3357313888239483        2.4266660626378243
0.34029192954464504       2.387365543769064
0.3408025979178376        2.3829648524332194
0.34095027983212084       2.381692201619573
0.34147864371579095       2.377139018992452
0.34161369776823924       2.375975188942111
0.3466598054341183        2.332490290619294
0.34678949579065915       2.3313726822880714
0.3468235005842487        2.33107964553784
0.3474749852750591        2.3254654677567506
0.3474960067125302        2.325284315246429
0.34858038585863943       2.3131578709672427
0.3526762579823652        2.2807605342642807
0.35322270776254006       2.280981593195131
0.3534078108091866        2.2735827353358107
0.3576812547925761        2.241591162141372
0.35831406373117525       2.237611449071988
0.35847811015923          2.236579766878688
0.35929316804800515       2.2314538965971513
0.3631395938732152        2.207263860405707
0.3642817182493503        2.2000810805343884
0.36454912290091923       2.1983993821231453
0.3651785252868237        2.1944410927433715
0.36848387390588067       2.173653871995153
0.37024937276752523       2.162550711996796
0.37062013564260854       2.1602189973676147
0.37106388252564226       2.1574282888896104
0.3736789749309882        2.140982065095361
0.37621702728570033       2.132478826672261
0.37644892004981123       2.1304005543498206
0.37660448960821447       2.119899146482961
0.3769572118411634        2.1161430025502197
0.3839907572180476        2.0946821140106384
0.38421705335963785       2.0940306258870534
0.3843401667806399        2.0936761923952893
0.3849582187993791        2.091896871072636
0.3919075551350994        2.0718902988982695
0.39214333801747103       2.071211499222191
0.3922910491037508        2.0707862510595105
0.3929592257575947        2.0688626250030695
0.399829706276225         2.0490830722906654
0.4000696226753043        2.0483923725573217
0.4002419314268617        2.0478963097237255
0.4009602327158104        2.045828378933493
0.40775604131820625       2.026263800573916
0.4079959073331375        2.0308552994306472
0.4080347553767052        2.0360643715779583
0.40816396642118186       2.035011696477993
0.40821520340659445       2.0341481214428687
0.40855443463439634       2.0360871726016065
0.4087530204571838        2.035744594023599
0.40938287537897045       2.0324435044841773
0.41591521722130925       2.0251373454995876
0.4159723928277786        2.02507339690642
0.41673747346130074       2.0242176852980207
0.41729163117958423       2.023597882401899
0.4238457196721296        2.016267400672444
0.4238993935959791        2.0162073685690363
0.4247219264654177        2.0152873989686606
0.42520933199880123       2.014742255679648
0.43177622212294986       2.0073974558452887
0.4318263943641796        2.0073413402316413
0.4327063794695346        2.006357112639305
0.4331345442882503        2.005878227683088
0.43970672457377025       2.0034212511605984
0.43977204193033564       2.001856638395452
0.44060315194117144       1.9961381855951499
0.44627385070606584       1.9932973619886734
0.4474986586661003        1.9922452976234997
0.44868862202542137       1.9912231634709994
0.4489904434653903        1.9909639101088406
0.45512812606434055       1.9856918696275119
0.45529316838181333       1.9855501044311499
0.4572757244495099        1.983847162697541
0.4573777349896091        1.9837595394475187
0.4616597443239958        1.9778210085936752
0.4630798021756795        1.9740006075373149
0.46310758825128134       1.973970084083294
0.4658468261728932        1.9709609868667526
0.46585829967918885       1.9709483830342833
0.4708313204372408        1.967683483733098
0.4710522261579363        1.9645464532657781
0.47658363611362276       1.9566926936647624
0.4779206980513873        1.9566763012195247
0.4784268031581803        1.9561956573936388
0.47994831212484346       1.954750692936578
0.48494970164371776       1.95000091475649
0.48545041511957066       1.949525391317832
0.48627878421618975       1.948738696051379
0.48679375481190523       1.9482496327441337
0.4877207995130345        1.9473692260737885
0.4891091973515078        1.946050676152089
0.49160040885653594       1.9436847932301542
0.4941307652741991        1.9412817347090794
0.4954932869012255        1.939987759210955
0.499527061573026         1.9361569168326085
0.501634758589393         1.93415525444243
0.5018977346571001        1.9339055082501826
0.5019827463322086        1.9328914803085064
0.5021501446445129        1.9317624524539436
0.5026472121045652        1.931181243499809
0.5092389617816916        1.9234736700944586
0.5104977863512437        1.9220017569834464
0.5130014336903872        1.919074302727334
0.5148380232467498        1.916926822996686
0.5179298001584345        1.9133116830616208
0.5190128263702787        1.9120453267167097
0.5262050862786698        1.9036355912277263
0.5265641657730801        1.9032157282630988
0.5266206385351775        1.9031496960287773
0.5266528723412844        1.8996336258959894
0.5266934817327589        1.8961172738397936
0.5277693838038544        1.8951112430912158
0.5277802502430862        1.9012410104886914
0.5279772637280745        1.9068445462580548
0.5281638172855165        1.906336632262564
0.528509237440566         1.9053961852752208
0.5286249471367059        1.905081152022095
0.5290755213636654        1.9037754257618
0.5337618696590911        1.9070763255996097
0.534176798822136         1.919021018112757
0.537008091878816         1.9176485605276694
0.5373235119917835        1.9174956619340369
0.5375890167787254        1.9070677684867277
0.5394112544436294        1.893323894929098
0.5425118842057611        1.8874625931071745
0.5433882389025929        1.8858059685582118
0.5465798098530957        1.8797727552879775
0.5489493843944045        1.8752934099156997
0.551587666198712         1.870306111485169
0.5530793571606558        1.8674862807979418
0.5555706029274663        1.8627769331904989
0.5609120948437973        1.8526795985511442
0.561990359740302         1.850641291340272
0.5627704754187188        1.8491665930376695
0.5645613960018367        1.8457811110930167
0.5687316934293801        1.8378977539090908
0.5706987408832638        1.8352553227387327
0.5724774074049539        1.8427923360027658
0.5734089468127401        1.86687839493983
0.5734892182463383        1.8830606676834951
0.5735105023160654        1.8608146299630657
0.5735862830704924        1.8295376200977342
0.5790050618525943        1.8118839853402817
0.5797784474111877        1.8106408815413895
0.5844200354148695        1.8031802099317562
0.5851592228413383        1.801992074612016
0.5851947479860612        1.801934973154831
0.585713257520186         1.8011015451647776
0.5860404933444683        1.8005755615958052
0.5867057281897746        1.7995062941984883
0.5870073884008342        1.7990214196748076
0.5906334934183882        1.7931929879534858
0.5906334934183882        1.792523088630035
0.5921983599451157        1.7899080700266943
0.5924038393128326        1.7895646973747728
0.5961849627209327        1.7832461341714225
0.5976333227857582        1.7808258072942147
0.5980695383880936        1.7830026190594706
0.5991402769427525        1.7819041304148886
0.5994622166884875        1.779372346331355
0.6004457434290362        1.7755617536165023
0.6020180423268593        1.769470012051597
0.6033870157757932        1.7641660380606026