% Model:              RylanSaddleCoilTest4.mph
% Version:            COMSOL 6.2.0.415
% Date:               Jun 19 2025, 13:51
% Dimension:          3
% Nodes:              199
% Expressions:        3
% Description:        Magnetic flux density, x-component, Magnetic flux density, y-component, Magnetic flux density, z-component
% Length unit:        m
% x                       y                        z                        mf.Bx (T)                mf.By (T)                mf.Bz (T)
0                         0.29158826658073933      0                        -1.554598967679834E-10   3.6773733319267636E-10   -1.2089222319141868E-6
0                         0.2944299414988155       0                        1.598794474679289E-10    4.602547614297432E-10    -1.2098466629406563E-6
0                         0.28862835746193083      0                        -1.9089998630704873E-10  -1.9014106122184877E-11  -1.2078164654849348E-6
0                         0.2973792120952443       0                        6.340082793625924E-12    1.804341500855989E-10    -1.2106912609788878E-6
0                         0.29999999999999993      0                        -1.1233260153857103E-10  0                        -1.2113879340568889E-6
0                         0.28861026328171946      0                        -5.6256058850392025E-11  -8.721961541698998E-12   -1.20811895666787E-6
0                         0.2857842049916287       0                        -4.0889084582857013E-10  -7.467374283389562E-10   -1.2045202893609623E-6
0                         0.2885959347539674       0                        3.561535665250299E-11    7.500150796976712E-11    -1.2083367589188964E-6
0                         0.285731832463641        0                        -1.855394019522402E-10   -3.8834415080679863E-10  -1.2049086556737747E-6
0                         0.2784410039978469       0                        7.967269447269946E-11    2.1766135603387225E-10   -1.193555747924216E-6
0                         0.27901569057591147      0                        1.2249852117889516E-10   -1.0241080308622917E-10  -1.1956713692942284E-6
0                         0.2792876246799286       0                        1.996764603598091E-10    -1.0417721304979962E-9   -1.195713805245776E-6
0                         0.27795313677070665      0                        2.0692600263509918E-10   -1.264352702536846E-9    -1.1926070174018335E-6
0                         0.27818605447348166      0                        1.59309908138902E-10     -8.990756405087995E-10   -1.1922608912335936E-6
0                         0.27286427455413764      0                        -5.825074842896166E-10   -8.119982587627107E-10   -1.1784154477274072E-6
0                         0.2672216075366728       0                        2.1287351146014949E-10   1.5201618887382406E-9    -1.1511282202989397E-6
0                         0.2677898246137703       0                        -4.033447234574961E-10   5.500469901484181E-10    -1.1531371787821663E-6
0                         0.26832722554416544      0                        5.302973686505746E-10    1.7326335353134071E-9    -1.1554091811603488E-6
0                         0.27241769932780735      0                        -1.334411813731228E-9    -1.679710916157009E-9    -1.1756682287317731E-6
0                         0.2626554046433097       0                        -1.9193806116968506E-10  -5.7781820075205526E-11  -1.1186996509914614E-6
0                         0.2619728049706044       0                        2.6039195121056763E-10   -3.039613411660548E-10   -1.1156777242900055E-6
0                         0.25678387556148674      0                        -2.171037994634561E-11   -3.164926779861988E-9    -1.047173824881136E-6
0                         0.25736255060872615      0                        -4.929713717788588E-10   -2.038821598046595E-9    -1.0553489773457233E-6
0                         0.25294035927417935      0                        -5.193425766261378E-9    2.4376099462196636E-9    -9.952559822675483E-7
0                         0.2525819001663906       0                        -2.2590716955586153E-9   5.5228091167614184E-9    -9.955188621412407E-7
0                         0.25288461424226494      0                        -1.9564299352789963E-9   1.1858989609177163E-9    -9.925328810129562E-7
0                         0.2520649790922569       0                        -3.0106299334117133E-9   1.6603243068146026E-9    -9.865515559228972E-7
0                         0.25216577571518284      0                        -2.0241905411784583E-9   9.302560423843577E-9     -9.907162760298226E-7
0                         0.24672474073974268      0                        2.5955621849275235E-9    1.1227382309666806E-8    -8.370562067422973E-7
0                         0.24288363070655936      0                        -6.435913566063639E-9    1.8378434357076148E-9    -7.303879488780459E-7
0                         0.2452197284615277       0                        -3.692775566950979E-9    6.980465153659889E-9     -7.974105690485279E-7
0                         0.24097050720753385      0                        4.519435571839118E-9     3.84810999023973E-9      -6.427740405882573E-7
0                         0.24064692838269672      0                        1.4175184167888194E-8    8.915484354644216E-9     -6.246406925261422E-7
0                         0.2397897596525169       0                        9.944373216858518E-10    8.245779489252056E-9     -6.050641821758644E-7
0                         0.2315992738374534       0                        -1.0133963286960755E-8   -5.595511741648357E-9    -1.53768704509184E-7
0                         0.23815813987570042      0                        -3.1328400221650603E-9   -1.308542182682352E-8    -5.198353045731181E-7
0                         0.2391242418495884       0                        -1.0401033307836452E-8   8.91966663101746E-9      -5.798417542792913E-7
0                         0.2295444333341298       0                        -3.573338278012855E-9    2.688266501772449E-9     3.526924576048554E-8
0                         0.22873166088842903      0                        1.2062071537686986E-9    -1.1759496634922532E-8   7.948670338556253E-8
0                         0.2242097202849899       0                        -1.3435456824602136E-8   6.458862640370481E-9     4.800255702573158E-7
0                         0.22430242230666916      0                        -1.471201210200413E-8    5.702054555129799E-9     4.705788534347688E-7
0                         0.22782421523313498      0                        8.587335611167165E-9     -7.899839674236647E-9    1.3848611728110203E-7
0                         0.22213780591249085      0                        6.361243796590595E-9     2.2691452597286563E-8    7.248318553949837E-7
0                         0.22221245026002054      0                        -3.4207466316994784E-9   2.4103097057691E-8       7.168615782284169E-7
0                         0.21945529374891995      0                        1.3521594294129703E-8    -1.671661660902049E-9    1.0055823002529436E-6
0                         0.21040184506960377      0                        1.7502473670767183E-8    -2.8485264895126682E-8   2.3674917261792775E-6
0                         0.21042007860974535      0                        2.591040609203609E-8     -7.443577252922388E-8    2.37294943381779E-6
0                         0.21232663535316462      0                        7.223166859712652E-9     -3.258371739703826E-8    2.0831781108061774E-6
0                         0.2098986324348708       0                        1.2436887277626657E-8    9.816900538788846E-9     2.4606935541810822E-6
0                         0.20967289072973946      0                        1.09814304619176E-8      -5.880827742102886E-10   2.5311960947497356E-6
0                         0.2087066837099774       0                        -1.10125607724142E-9     -1.0976228890310883E-8   2.7117639504216504E-6
0                         0.20830544729003217      0                        -9.415430286963367E-9    -1.3050764127239396E-8   2.775617856010558E-6
0                         0.200640701679729        0                        3.854580510183085E-9     4.158872705908056E-9     4.300076702906469E-6
0                         0.20408186739689085      0                        -4.5658235262494106E-9   4.893848537473064E-9     3.610104103725058E-6
0                         0.1991748396204274       0                        6.5337575160733795E-9    7.866980364517656E-9     4.624602220024801E-6
0                         0.19525417659833313      0                        -1.493353035921393E-9    -2.132896191336872E-9    5.493521786956963E-6
0                         0.18477842675976766      0                        -5.860161016125384E-9    -4.323588804124113E-9    7.784333001941767E-6
0                         0.1876427834180632       0                        -3.0533461982903906E-9   2.9469467208799133E-9    7.160756943742597E-6
0                         0.18435347226476176      0                        1.3998462928021108E-8    4.55443982729236E-8      7.864523507876786E-6
0                         0.18448860625049426      0                        1.1004699422262162E-8    2.0227285619429796E-8    7.857455161040412E-6
0                         0.18454858353504414      0                        -4.9935686083291295E-9   -8.314224336238987E-9    7.833588838752265E-6
0                         0.1844996603283848       0                        -2.9767043673631568E-9   -3.519974906205705E-9    7.844912409487478E-6
0                         0.1843335436427014       0                        -1.040203508229764E-8    4.639661350898308E-8     7.81459695264563E-6
0                         0.1842511600059711       0                        3.038073863635806E-11    -6.876030311473919E-9    7.84917278614609E-6
0                         0.18426338294318614      0                        -6.47600005736202E-9     2.7833542236279813E-8    7.819219439750512E-6
0                         0.18332669599633136      0                        -7.443505413224063E-9    -1.8187292153286828E-8   8.048086482472887E-6
0                         0.17804320466404386      0                        8.457370956919286E-9     1.6165588550497562E-9    9.093071106806882E-6
0                         0.17533716322774565      0                        -5.766299760611212E-10   -5.656103056253881E-9    9.511665870949997E-6
0                         0.17692117060749427      0                        5.208455730380941E-9     2.729527211685023E-9     9.269278621937353E-6
0                         0.1729295846833552       0                        -1.0817822997293668E-8   -3.356618603730235E-8    9.88279833999877E-6
0                         0.1717499748929279       0                        -4.785897553972025E-9    -2.54543679078185E-8     1.0049785257709156E-5
0                         0.16877261474606473      0                        -1.7092538857707903E-8   8.32697130749368E-9      1.047278165971086E-5
0                         0.16867024795933425      0                        -2.16615893372727E-9     1.0561216959361947E-8    1.0478828856021504E-5
0                         0.1679085218516754       0                        1.4571023715320359E-8    1.4318590634496285E-8    1.059198329342625E-5
0                         0.15808807852374365      0                        -1.6772941229429672E-8   4.323688018764614E-8     1.1571068156381727E-5
0                         0.15819692742390326      0                        -1.8551960639494E-8      4.0662984560652464E-8    1.1578798687016697E-5
0                         0.15807082647783102      0                        -2.2992125711393272E-8   -1.064240657730147E-9    1.1540623867496229E-5
0                         0.1579447346679759       0                        -1.508467468381942E-9    -7.989161285957124E-8    1.1607434066827223E-5
0                         0.15795054173599285      0                        -1.74498126300209E-8     -3.8441866727758365E-8   1.1564124494824624E-5
0                         0.14485976845983647      0                        -1.2296117835591908E-8   6.073777723179201E-9     1.225590355330438E-5
0                         0.14487084768729838      0                        -4.93858454306184E-9     3.1674904867068976E-8    1.2284680506691575E-5
0                         0.15713211425550597      0                        -1.3129756736442419E-9   -8.95368485187718E-8     1.166636769389838E-5
0                         0.1448093801052254       0                        -3.2996289216041165E-9   -3.538451865503363E-9    1.2265404905032633E-5
0                         0.13165304898468594      0                        -3.178311865340105E-9    -5.834223998412511E-9    1.2604765675937797E-5
0                         0.1316922016395651       0                        -4.622073300816715E-9    -1.5923364689334603E-9   1.2598350546894762E-5
0                         0.1447912646333905       0                        3.983268414529034E-9     -6.312681786637668E-9    1.2290229918474842E-5
0                         0.13172987219989382      0                        2.864571558444175E-10    3.895808311083575E-9     1.2613357618141927E-5
0                         0.1317161943820083       0                        -9.474621876347486E-10   -3.953514924724807E-11   1.2599655880991078E-5
0                         0.13158362768807597      0                        5.278302284481196E-10    -4.1987643825173056E-9   1.2612550657169357E-5
0                         0.13147133361854446      0                        6.996849132428028E-10    2.814106459514635E-9     1.2613414897654083E-5
0                         0.12387089849316957      0                        -1.3507818039593758E-9   1.5806007549768344E-9    1.269784641572348E-5
0                         0.11963441040776934      0                        1.6054643708231624E-9    -9.460305285645376E-10   1.2726968317808664E-5
0                         0.12175167983937146      0                        2.947542361201366E-10    3.6854501250683334E-10   1.2713378278836989E-5
0                         0.115760348861521        0                        -9.793530211728165E-10   -8.55964392592452E-10    1.274746855779936E-5
0                         0.11542448992335871      0                        -1.885888948804929E-9    -6.643061039494475E-10   1.2748270468298302E-5
0                         0.12349913622393466      0                        -2.4537156190224404E-9   3.1498039949340643E-9    1.2697892889293256E-5
0                         0.10535986446354983      0                        -1.8164546179943447E-9   2.8666432270973575E-9    1.2767253978263035E-5
0                         0.10539099077802158      0                        5.424721303686154E-10    5.1153802243694475E-9    1.277351017313145E-5
0                         0.106777551692642        0                        -1.297640860142164E-10   4.289432714110613E-9     1.2773939164585168E-5
0                         0.11172034855344101      0                        -9.69176045415388E-10    1.1820737102768958E-9    1.2760820179361686E-5
0                         0.10531727524150258      0                        8.781505876893362E-10    -2.125360094171539E-9    1.2776890765274958E-5
0                         0.10534476507352256      0                        -1.5379805639174865E-9   8.334512732120048E-10    1.2769739962584735E-5
0                         0.11540579603946818      0                        -2.6155461311421574E-9   1.9842611991010767E-9    1.2749366093664069E-5
0                         0.0913598233584404       0                        -1.0410899311207482E-8   7.893654039503372E-10    1.275266037090443E-5
0                         0.0913637687433064       0                        -7.673630592629028E-9    1.0762514340585834E-9    1.2755840275848778E-5
0                         0.09417997148119422      0                        -6.38804471206972E-10    3.596473896770921E-9     1.2774412928870583E-5
0                         0.09137109832226628      0                        -3.765024716124895E-11   6.900815178063726E-9     1.2773475334034784E-5
0                         0.09136613427733509      0                        -1.1137348798377922E-9   4.487169451743667E-9     1.2766983272654005E-5
0                         0.09135618707150137      0                        -3.962655805674396E-9    -9.816741171315115E-10   1.2757611411918924E-5
0                         0.09135066612203652      0                        2.184375287245951E-9     -6.515241671413909E-9    1.276892410904109E-5
0                         0.0913558332953271       0                        2.3672749576719643E-9    -5.47158919002551E-9     1.2765173694613469E-5
0                         0.08811834808270308      0                        7.259146778556755E-10    -2.2749865388209025E-9   1.2759965962430453E-5
0                         0.08518772591995169      0                        9.78045974023203E-10     -3.523618648559458E-10   1.2752028331840579E-5
0                         0.0790151870796523       0                        1.7302158010868514E-9    4.165312144539666E-9     1.2719743246360155E-5
0                         0.06279427694992837      0                        1.6353139676953267E-9    -4.791531293854688E-9    1.250128761783144E-5
0                         0.06279448504183816      0                        4.375188555500706E-9     -3.7581326172414406E-9   1.2502438909556355E-5
0                         0.0627929768071456       0                        -4.810046615650604E-10   -9.838271862085542E-9    1.2507877768718663E-5
0                         0.046773153755547636     0                        1.5457740983269687E-10   5.247483346280607E-9     1.1892085945414692E-5
0                         0.04677617583215832      0                        3.8419778455944825E-9    7.541893276338818E-9     1.1891984902669277E-5
0                         0.046886017021568305     0                        -2.260976369699197E-9    9.80885852143072E-9      1.1907549119343188E-5
0                         0.046894400730681296     0                        -2.5921583691022847E-11  2.4282074602282323E-8    1.193490802056461E-5
0                         0.06255445316831362      0                        -4.2505233304271495E-9   -1.69553334894856E-8     1.2524519489282657E-5
0                         0.04689417621953587      0                        -8.558972591477836E-9    1.276600443989241E-8     1.1917220008917747E-5
0                         0.04626618033355037      0                        3.844850118402626E-9     1.4002123176719697E-9    1.1873247604408927E-5
0                         0.04613182392525464      0                        1.8300642223589816E-8    -2.0753972256544852E-8   1.1863725483429368E-5
0                         0.06320290509076679      0                        1.1381194424716605E-9    -3.3464082096723483E-9   1.251312597509731E-5
0                         0.07118003682110591      0                        -1.122217201555981E-9    -6.063905094757919E-10   1.2652923606415E-5
0                         0.06293326504291569      0                        3.477096432791172E-9     -2.136952992572023E-9    1.2504809602259518E-5
0                         0.03765245442297241      0                        -6.194737922954475E-9    -6.84851215243987E-9     1.1201762696041655E-5
0                         0.04414181386004795      0                        1.229532125317719E-8     -4.510072179853046E-8    1.1710247949810699E-5
0                         0.04613088678080762      0                        2.597191040956552E-8     -4.3114308798829014E-8   1.185628740671577E-5
0                         0.03445207041286186      0                        -1.6328374918349074E-8   9.949884121886978E-9     1.0865540630699043E-5
0                         0.02942356119459097      0                        3.535812154539307E-9     1.9734855779760854E-8    1.0219300101514492E-5
0                         0.02679507863164629      0                        1.0841442954201994E-8    1.3368835865785515E-8    9.848704500704056E-6
0                         0.025422412137300815     0                        7.795616661233617E-9     1.6174930058598348E-9    9.653006153575407E-6
0                         0.01619159422282057      0                        5.536543998589998E-9     2.4729173712641394E-8    7.93731880459198E-6
0                         0.0163031761337213       0                        1.4759884002833713E-9    6.71783427368831E-8      8.02275883343007E-6
0                         0.016162636117817347     0                        3.662260381841431E-9     -3.884406858711147E-8    7.923005653185197E-6
0                         0.017239465031032436     0                        -4.964128862334188E-9    5.417089444154841E-8     8.202728116682394E-6
0                         0.01601484652988823      0                        1.495658476347371E-8     -3.1173858840521116E-8   7.943477668088299E-6
0                         0.015957919165394796     0                        1.110414866603982E-8     2.3593282292735623E-9    7.935698230849811E-6
0                         0.005536002643447849     0                        -2.9787512803204417E-9   -4.687180780471047E-9    5.665291151441595E-6
0                         0.015935947544913273     0                        -7.362316481478861E-9    2.742921424787954E-8     7.928952676188667E-6
0                         0.0035546405902052436    0                        -1.1621039502478881E-8   6.818694227886809E-9     5.218692010001922E-6
0                         -0.003516118569551724    0                        9.27078407042795E-9      2.7235336846621693E-9    3.694384383287419E-6
0                         -3.056274463338615E-4    0                        1.0562184385147161E-9    1.0824944631372237E-8    4.384092564628232E-6
0                         -0.004752762593184773    0                        1.3507141724017929E-8    6.55036295416897E-9      3.4638954020927357E-6
0                         -0.005481775239502093    0                        5.043943473036522E-9     1.5836354577698073E-8    3.344942297362006E-6
0                         -0.006462309058059751    0                        -1.9208467974324263E-9   3.207545569950087E-9     3.145564655918597E-6
0                         -0.008152621070134314    0                        -7.821311537320208E-9    -4.023102994768689E-9    2.809115840294244E-6
0                         -0.01316619864646848     0                        5.01338443334412E-9      6.7800993001271E-9       1.9034204823800203E-6
0                         -0.010751686352196185    0                        -6.429407043619952E-10   8.092378364460624E-9     2.3317554336990316E-6
0                         -0.02091182633008616     0                        1.1400750528703533E-8    -5.385455933152083E-9    8.61554547859543E-7
0                         -0.020448475420001846    0                        2.5278898072682354E-8    -1.5746327431843961E-9   9.293649294743561E-7
0                         -0.021097866009823496    0                        1.0450569224347317E-8    1.0159024420099294E-8    8.309093625942734E-7
0                         -0.020289655664110853    0                        3.897326232441687E-8     -1.926666916512966E-9    9.755288497583293E-7
0                         -0.020013660667014627    0                        2.1924193538897188E-8    -1.5296909596228926E-8   9.916208041370106E-7
0                         -0.018937922464987794    0                        -5.62290382148801E-9     -4.585261732162166E-8    1.102992600198398E-6
0                         -0.019998098041531104    0                        -5.684043716500076E-9    -4.367505089275881E-8    9.732882200276822E-7
0                         -0.019568914487343256    0                        -1.524515580740825E-8    -4.929325096724147E-8    1.0333390051834553E-6
0                         -0.0224643747173649      0                        -1.5549797188110425E-8   3.0605585513648885E-8    6.613903582020916E-7
0                         -0.036042651350062335    0                        -7.62610470284936E-9     -1.4357164920649798E-8   -4.0093138867797574E-7
0                         -0.03433059079536102     0                        -2.7411584227918306E-9   9.397258279189687E-9     -3.1848138048830434E-7
0                         -0.03314226099089289     0                        1.3776912725863382E-8    3.32397456591269E-10     -2.597598146418269E-7
0                         -0.025771177498221484    0                        -1.896080175143747E-8    1.8329226235698204E-8    3.49150121793631E-7
0                         -0.04679850997005336     0                        5.119467408553925E-9     -4.800087576075259E-9    -8.563418580522778E-7
0                         -0.043894557629919645    0                        -1.5380812713228481E-9   -6.741054213655466E-9    -7.496336841749374E-7
0                         -0.048403921544653596    0                        -8.020003764690356E-10   -5.933826301400363E-9    -8.859693614027248E-7
0                         -0.047716094530754274    0                        6.351834709390662E-9     -5.248462860562489E-9    -8.690768209197146E-7
0                         -0.03963466224222237     0                        8.619816986827195E-9     1.8967977246297538E-8    -5.867223997503576E-7
0                         -0.039005363271985616    0                        6.578505914686824E-9     9.370192244692071E-9     -5.624713509197304E-7
0                         -0.03679875389685071     0                        1.5147164284838846E-9    -1.047142715094941E-8    -4.631771096704532E-7
0                         -0.036413417526761666    0                        5.193166333686056E-10    -1.5596473731257557E-8   -4.2518720190413257E-7
0                         -0.08148153153454385     0                        5.91629801598489E-10     -1.3522802678752695E-9   -1.1992735716353002E-6
0                         -0.07484328337693417     0                        -4.729999959523606E-11   -4.3880864634663E-10     -1.185300998413753E-6
0                         -0.07307751754867856     0                        -1.1116817447481368E-9   -2.43146128781197E-10    -1.1795212769146181E-6
0                         -0.07250626319388266     0                        -1.35277063960526E-9     -7.979503630206089E-10   -1.1746674815140914E-6
0                         -0.06971110326567669     0                        5.185092100270417E-10    2.5364122876474247E-9    -1.1644847697818999E-6
0                         -0.06912139110026885     0                        7.32097632809593E-10     -2.0723416090942205E-10  -1.166379341473533E-6
0                         -0.06353343653512969     0                        4.0300986937836537E-10   5.2156765039647565E-9    -1.121141818432501E-6
0                         -0.048703884035087575    0                        -4.683803269239322E-9    -5.42994971593682E-9     -9.038429192536562E-7
0                         -0.05147258620676278     0                        2.167281927549922E-9     -1.2788083737591286E-8   -9.539853658310035E-7
0                         -0.050505910888267176    0                        -1.4500072017094934E-9   -6.33201827823073E-9     -9.405464287834054E-7
0                         -0.06034018207693427     0                        6.470658615932915E-10    1.0936978907414352E-9    -1.1013182278939366E-6
0                         -0.05205708692911391     0                        1.947559529568433E-9     -1.3714345319498578E-8   -9.662729468479972E-7
0                         -0.0614263676686344      0                        8.039980415713456E-10    2.3742527377507664E-9    -1.105798340919302E-6
0                         -0.08992893936030638     0                        1.5397550046290227E-10   7.306934145091246E-11    -1.2081040774579738E-6
0                         -0.0877326298037624      0                        -1.1801497892211438E-12  7.553138423197817E-10    -1.206140659983758E-6
0                         -0.0847371904644068      0                        -7.116470752575854E-10   3.200396305562564E-10    -1.2040716494779506E-6
0                         -0.08241818530669551     0                        7.386399950509089E-11    -3.4551634662536685E-10  -1.2013488091670713E-6
0                         -0.08531402958930476     0                        -4.660461073711784E-10   4.3041022560263575E-10   -1.2046680478457932E-6
0                         -0.08752761377756377     0                        -2.811000938471588E-11   1.1563527036547911E-9    -1.2057222185853267E-6
0                         -0.09097237716780818     0                        6.277621306199772E-11    1.688579067073154E-11    -1.2087797551871675E-6
0                         -0.09233992146169609     0                        -1.432111597166374E-10   7.436448918218949E-11    -1.2096684823338579E-6
0                         -0.09451893584060746     0                        1.1206588983432424E-10   5.708633754699149E-11    -1.210138571833136E-6
0                         -0.09360640891649818     0                        -7.228596907222965E-12   6.388350253316849E-11    -1.2099058912522917E-6
0                         -0.0966282889621372      0                        7.672472640809723E-11    -2.0055426177131153E-10  -1.2104943340138448E-6
0                         -0.09776423636224973     0                        3.2279386157702997E-11   -1.4076219310539008E-10  -1.210702599908116E-6
0                         -0.1                     0                        -5.928083917425256E-11   -4.4597274073790914E-23  -1.2111418531661341E-6
